 argument  1 = input.nw
                                         
                                         
 
 
              Northwest Computational Chemistry Package (NWChem) 6.6
              ------------------------------------------------------
 
 
                    Environmental Molecular Sciences Laboratory
                       Pacific Northwest National Laboratory
                                Richland, WA 99352
 
                              Copyright (c) 1994-2015
                       Pacific Northwest National Laboratory
                            Battelle Memorial Institute
 
             NWChem is an open-source computational chemistry package
                        distributed under the terms of the
                      Educational Community License (ECL) 2.0
             A copy of the license is included with this distribution
                              in the LICENSE.TXT file
 
                                  ACKNOWLEDGMENT
                                  --------------

            This software and its documentation were developed at the
            EMSL at Pacific Northwest National Laboratory, a multiprogram
            national laboratory, operated for the U.S. Department of Energy
            by Battelle under Contract Number DE-AC05-76RL01830. Support
            for this work was provided by the Department of Energy Office
            of Biological and Environmental Research, Office of Basic
            Energy Sciences, and the Office of Advanced Scientific Computing.


           Job information
           ---------------

    hostname        = c456-012.stampede2.tacc.utexas.edu
    program         = nwchem
    date            = Wed Oct 24 18:24:43 2018

    compiled        = Tue_Dec_19_01:18:01_2017
    source          = /admin/build/rpms/BUILD/nwchem-6.6/
    nwchem branch   = 6.6
    nwchem revision = 27746
    ga revision     = 10594
    input           = input.nw
    prefix          = neutral.
    data base       = ./neutral.db
    status          = startup
    nproc           =       47
    time left       =     -1s



           Memory information
           ------------------

    heap     =   52428800 doubles =    400.0 Mbytes
    stack    =   52428797 doubles =    400.0 Mbytes
    global   =  104857600 doubles =    800.0 Mbytes (distinct from heap & stack)
    total    =  209715197 doubles =   1600.0 Mbytes
    verify   = yes
    hardfail = no 


           Directory information
           ---------------------
 
  0 permanent = .
  0 scratch   = .
 
 
 
 
                                NWChem Input Module
                                -------------------
 
 

 Scaling coordinates for geometry "geometry" by  1.889725989
 (inverse scale =  0.529177249)

 CI  symmetry detected

          ------
          auto-z
          ------
 
 
                             Geometry "geometry" -> ""
                             -------------------------
 
 Output coordinates in angstroms (scale by  1.889725989 to convert to a.u.)
 
  No.       Tag          Charge          X              Y              Z
 ---- ---------------- ---------- -------------- -------------- --------------
    1 C                    6.0000    -0.69552210     3.66769632    -0.00154639
    2 C                    6.0000    -1.41471681     2.47711381     0.01785176
    3 H                    1.0000    -1.22523380     4.61777238     0.02461471
    4 C                    6.0000     0.69623184     3.66838097     0.00499082
    5 H                    1.0000    -2.47882444     2.47502074    -0.19002822
    6 C                    6.0000    -0.70945518     1.22797557     0.00093783
    7 C                    6.0000     1.41363885     2.47710517    -0.02395407
    8 H                    1.0000     1.22619696     4.61736497     0.02247836
    9 C                    6.0000    -1.41780699    -0.00004677     0.03937528
   10 C                    6.0000     0.70933690     1.22824879    -0.01260118
   11 H                    1.0000     2.47920608     2.46883691     0.18333631
   12 H                    1.0000    -2.47560973    -0.00175284    -0.20431828
   13 C                    6.0000    -0.70933690    -1.22824879     0.01260118
   14 C                    6.0000     1.41780699     0.00004677    -0.03937528
   15 C                    6.0000    -1.41363885    -2.47710517     0.02395407
   16 C                    6.0000     0.70945518    -1.22797557    -0.00093783
   17 H                    1.0000     2.47560973     0.00175284     0.20431828
   18 H                    1.0000    -2.47920608    -2.46883691    -0.18333631
   19 C                    6.0000    -0.69623184    -3.66838097    -0.00499082
   20 C                    6.0000     1.41471681    -2.47711381    -0.01785176
   21 H                    1.0000    -1.22619696    -4.61736497    -0.02247836
   22 C                    6.0000     0.69552210    -3.66769632     0.00154639
   23 H                    1.0000     2.47882444    -2.47502074     0.19002822
   24 H                    1.0000     1.22523380    -4.61777238    -0.02461471
 
      Atomic Mass 
      ----------- 
 
      C                 12.000000
      H                  1.007825
 

 Effective nuclear repulsion energy (a.u.)     764.5913949899

            Nuclear Dipole moment (a.u.) 
            ----------------------------
        X                 Y               Z
 ---------------- ---------------- ----------------
     0.0000000000     0.0000000000     0.0000000000
 
      Symmetry information
      --------------------
 
 Group name             Ci        
 Group number              3
 Group order               2
 No. of unique centers    12
 
      Symmetry unique atoms
 
     1    2    3    4    5    6    7    8    9   10   11   12
 


                                Z-matrix (autoz)
                                -------- 

 Units are Angstrom for bonds and degrees for angles
 
      Type          Name      I     J     K     L     M      Value
      ----------- --------  ----- ----- ----- ----- ----- ----------
    1 Stretch                  1     2                       1.39108
    2 Stretch                  1     3                       1.08808
    3 Stretch                  1     4                       1.39177
    4 Stretch                  2     5                       1.08422
    5 Stretch                  2     6                       1.43458
    6 Stretch                  4     7                       1.39092
    7 Stretch                  4     8                       1.08708
    8 Stretch                  6     9                       1.41820
    9 Stretch                  6    10                       1.41886
   10 Stretch                  7    10                       1.43381
   11 Stretch                  7    11                       1.08557
   12 Stretch                  9    12                       1.08551
   13 Stretch                  9    13                       1.41814
   14 Stretch                 10    14                       1.41814
   15 Stretch                 13    15                       1.43381
   16 Stretch                 13    16                       1.41886
   17 Stretch                 14    16                       1.41820
   18 Stretch                 14    17                       1.08551
   19 Stretch                 15    18                       1.08557
   20 Stretch                 15    19                       1.39092
   21 Stretch                 16    20                       1.43458
   22 Stretch                 19    21                       1.08708
   23 Stretch                 19    22                       1.39177
   24 Stretch                 20    22                       1.39108
   25 Stretch                 20    23                       1.08422
   26 Stretch                 22    24                       1.08808
   27 Bend                     1     2     5               120.42369
   28 Bend                     1     2     6               119.39989
   29 Bend                     1     4     7               121.01452
   30 Bend                     1     4     8               119.21005
   31 Bend                     2     1     3               119.68865
   32 Bend                     2     1     4               121.15495
   33 Bend                     2     6     9               120.53760
   34 Bend                     2     6    10               119.44166
   35 Bend                     3     1     4               119.09654
   36 Bend                     4     7    10               119.50288
   37 Bend                     4     7    11               120.58553
   38 Bend                     5     2     6               118.59084
   39 Bend                     6     9    12               118.81615
   40 Bend                     6     9    13               119.99286
   41 Bend                     6    10     7               119.43467
   42 Bend                     6    10    14               119.97135
   43 Bend                     7     4     8               119.77228
   44 Bend                     7    10    14               120.58394
   45 Bend                     9     6    10               119.99184
   46 Bend                     9    13    15               120.58394
   47 Bend                     9    13    16               119.97135
   48 Bend                    10     7    11               118.29498
   49 Bend                    10    14    16               119.99286
   50 Bend                    10    14    17               118.76539
   51 Bend                    12     9    13               118.76539
   52 Bend                    13    15    18               118.29498
   53 Bend                    13    15    19               119.50288
   54 Bend                    13    16    14               119.99184
   55 Bend                    13    16    20               119.44166
   56 Bend                    14    16    20               120.53760
   57 Bend                    15    13    16               119.43467
   58 Bend                    15    19    21               119.77228
   59 Bend                    15    19    22               121.01452
   60 Bend                    16    14    17               118.81615
   61 Bend                    16    20    22               119.39989
   62 Bend                    16    20    23               118.59084
   63 Bend                    18    15    19               120.58553
   64 Bend                    19    22    20               121.15495
   65 Bend                    19    22    24               119.09654
   66 Bend                    20    22    24               119.68865
   67 Bend                    21    19    22               119.21005
   68 Bend                    22    20    23               120.42369
   69 Torsion                  1     2     6     9         179.09574
   70 Torsion                  1     2     6    10           1.05138
   71 Torsion                  1     4     7    10          -2.22739
   72 Torsion                  1     4     7    11        -167.48896
   73 Torsion                  2     1     4     7           2.64962
   74 Torsion                  2     1     4     8        -177.99803
   75 Torsion                  2     6     9    12          17.43900
   76 Torsion                  2     6     9    13         179.55471
   77 Torsion                  2     6    10     7          -0.67956
   78 Torsion                  2     6    10    14        -179.53363
   79 Torsion                  3     1     2     5          15.37188
   80 Torsion                  3     1     2     6        -179.18390
   81 Torsion                  3     1     4     7         179.82663
   82 Torsion                  3     1     4     8          -0.82102
   83 Torsion                  4     1     2     5        -167.46760
   84 Torsion                  4     1     2     6          -2.02339
   85 Torsion                  4     7    10     6           1.25515
   86 Torsion                  4     7    10    14        -179.89795
   87 Torsion                  5     2     6     9         -15.19327
   88 Torsion                  5     2     6    10         166.76238
   89 Torsion                  6     9    13    15        -178.74809
   90 Torsion                  6     9    13    16           2.41119
   91 Torsion                  6    10     7    11         166.85279
   92 Torsion                  6    10    14    16          -2.41119
   93 Torsion                  6    10    14    17        -164.53589
   94 Torsion                  7    10     6     9        -178.73476
   95 Torsion                  7    10    14    16         178.74809
   96 Torsion                  7    10    14    17          16.62338
   97 Torsion                  8     4     7    10         178.42387
   98 Torsion                  8     4     7    11          13.16230
   99 Torsion                  9     6    10    14           2.41116
  100 Torsion                  9    13    15    18          14.30031
  101 Torsion                  9    13    15    19         179.89795
  102 Torsion                  9    13    16    14          -2.41116
  103 Torsion                  9    13    16    20         179.53363
  104 Torsion                 10     6     9    12        -164.52739
  105 Torsion                 10     6     9    13          -2.41169
  106 Torsion                 10    14    16    13           2.41169
  107 Torsion                 10    14    16    20        -179.55471
  108 Torsion                 11     7    10    14         -14.30031
  109 Torsion                 12     9    13    15         -16.62338
  110 Torsion                 12     9    13    16         164.53589
  111 Torsion                 13    15    19    21        -178.42387
  112 Torsion                 13    15    19    22           2.22739
  113 Torsion                 13    16    14    17         164.52739
  114 Torsion                 13    16    20    22          -1.05138
  115 Torsion                 13    16    20    23        -166.76238
  116 Torsion                 14    16    13    15         178.73476
  117 Torsion                 14    16    20    22        -179.09574
  118 Torsion                 14    16    20    23          15.19327
  119 Torsion                 15    13    16    20           0.67956
  120 Torsion                 15    19    22    20          -2.64962
  121 Torsion                 15    19    22    24        -179.82663
  122 Torsion                 16    13    15    18        -166.85279
  123 Torsion                 16    13    15    19          -1.25515
  124 Torsion                 16    20    22    19           2.02339
  125 Torsion                 16    20    22    24         179.18390
  126 Torsion                 17    14    16    20         -17.43900
  127 Torsion                 18    15    19    21         -13.16230
  128 Torsion                 18    15    19    22         167.48896
  129 Torsion                 19    22    20    23         167.46760
  130 Torsion                 20    22    19    21         177.99803
  131 Torsion                 21    19    22    24           0.82102
  132 Torsion                 23    20    22    24         -15.37188
 
 
            XYZ format geometry
            -------------------
    24
 geometry
 C                    -0.69552210     3.66769632    -0.00154639
 C                    -1.41471681     2.47711381     0.01785176
 H                    -1.22523380     4.61777238     0.02461471
 C                     0.69623184     3.66838097     0.00499082
 H                    -2.47882444     2.47502074    -0.19002822
 C                    -0.70945518     1.22797557     0.00093783
 C                     1.41363885     2.47710517    -0.02395407
 H                     1.22619696     4.61736497     0.02247836
 C                    -1.41780699    -0.00004677     0.03937528
 C                     0.70933690     1.22824879    -0.01260118
 H                     2.47920608     2.46883691     0.18333631
 H                    -2.47560973    -0.00175284    -0.20431828
 C                    -0.70933690    -1.22824879     0.01260118
 C                     1.41780699     0.00004677    -0.03937528
 C                    -1.41363885    -2.47710517     0.02395407
 C                     0.70945518    -1.22797557    -0.00093783
 H                     2.47560973     0.00175284     0.20431828
 H                    -2.47920608    -2.46883691    -0.18333631
 C                    -0.69623184    -3.66838097    -0.00499082
 C                     1.41471681    -2.47711381    -0.01785176
 H                    -1.22619696    -4.61736497    -0.02247836
 C                     0.69552210    -3.66769632     0.00154639
 H                     2.47882444    -2.47502074     0.19002822
 H                     1.22523380    -4.61777238    -0.02461471
 
 ==============================================================================
                                internuclear distances
 ------------------------------------------------------------------------------
       center one      |      center two      | atomic units |  angstroms
 ------------------------------------------------------------------------------
    2 C                |   1 C                |     2.62876  |     1.39108
    3 H                |   1 C                |     2.05618  |     1.08808
    4 C                |   1 C                |     2.63006  |     1.39177
    5 H                |   2 C                |     2.04889  |     1.08422
    6 C                |   2 C                |     2.71097  |     1.43458
    7 C                |   4 C                |     2.62845  |     1.39092
    8 H                |   4 C                |     2.05428  |     1.08708
    9 C                |   6 C                |     2.68000  |     1.41820
   10 C                |   6 C                |     2.68125  |     1.41886
   10 C                |   7 C                |     2.70951  |     1.43381
   11 H                |   7 C                |     2.05144  |     1.08557
   12 H                |   9 C                |     2.05132  |     1.08551
   13 C                |   9 C                |     2.67990  |     1.41814
   14 C                |  10 C                |     2.67990  |     1.41814
   15 C                |  13 C                |     2.70951  |     1.43381
   16 C                |  13 C                |     2.68125  |     1.41886
   16 C                |  14 C                |     2.68000  |     1.41820
   17 H                |  14 C                |     2.05132  |     1.08551
   18 H                |  15 C                |     2.05144  |     1.08557
   19 C                |  15 C                |     2.62845  |     1.39092
   20 C                |  16 C                |     2.71097  |     1.43458
   21 H                |  19 C                |     2.05428  |     1.08708
   22 C                |  19 C                |     2.63006  |     1.39177
   22 C                |  20 C                |     2.62876  |     1.39108
   23 H                |  20 C                |     2.04889  |     1.08422
   24 H                |  22 C                |     2.05618  |     1.08808
 ------------------------------------------------------------------------------
                         number of included internuclear distances:         26
 ==============================================================================



 ==============================================================================
                                 internuclear angles
 ------------------------------------------------------------------------------
        center 1       |       center 2       |       center 3       |  degrees
 ------------------------------------------------------------------------------
    2 C                |   1 C                |   3 H                |   119.69
    2 C                |   1 C                |   4 C                |   121.15
    3 H                |   1 C                |   4 C                |   119.10
    1 C                |   2 C                |   5 H                |   120.42
    1 C                |   2 C                |   6 C                |   119.40
    5 H                |   2 C                |   6 C                |   118.59
    1 C                |   4 C                |   7 C                |   121.01
    1 C                |   4 C                |   8 H                |   119.21
    7 C                |   4 C                |   8 H                |   119.77
    2 C                |   6 C                |   9 C                |   120.54
    2 C                |   6 C                |  10 C                |   119.44
    9 C                |   6 C                |  10 C                |   119.99
    4 C                |   7 C                |  10 C                |   119.50
    4 C                |   7 C                |  11 H                |   120.59
   10 C                |   7 C                |  11 H                |   118.29
    6 C                |   9 C                |  12 H                |   118.82
    6 C                |   9 C                |  13 C                |   119.99
   12 H                |   9 C                |  13 C                |   118.77
    6 C                |  10 C                |   7 C                |   119.43
    6 C                |  10 C                |  14 C                |   119.97
    7 C                |  10 C                |  14 C                |   120.58
    9 C                |  13 C                |  15 C                |   120.58
    9 C                |  13 C                |  16 C                |   119.97
   15 C                |  13 C                |  16 C                |   119.43
   10 C                |  14 C                |  16 C                |   119.99
   10 C                |  14 C                |  17 H                |   118.77
   16 C                |  14 C                |  17 H                |   118.82
   13 C                |  15 C                |  18 H                |   118.29
   13 C                |  15 C                |  19 C                |   119.50
   18 H                |  15 C                |  19 C                |   120.59
   13 C                |  16 C                |  14 C                |   119.99
   13 C                |  16 C                |  20 C                |   119.44
   14 C                |  16 C                |  20 C                |   120.54
   15 C                |  19 C                |  21 H                |   119.77
   15 C                |  19 C                |  22 C                |   121.01
   21 H                |  19 C                |  22 C                |   119.21
   16 C                |  20 C                |  22 C                |   119.40
   16 C                |  20 C                |  23 H                |   118.59
   22 C                |  20 C                |  23 H                |   120.42
   19 C                |  22 C                |  20 C                |   121.15
   19 C                |  22 C                |  24 H                |   119.10
   20 C                |  22 C                |  24 H                |   119.69
 ------------------------------------------------------------------------------
                            number of included internuclear angles:         42
 ==============================================================================



  library name resolved from: environment
  library file name is: </opt/apps/intel17/impi17_0/nwchem/6.6/data/libraries/>
  
                      Basis "ao basis" -> "" (cartesian)
                      -----
  H (Hydrogen)
  ------------
            Exponent  Coefficients 
       -------------- ---------------------------------------------------------
  1 S  3.38650000E+01  0.025494
  1 S  5.09479000E+00  0.190373
  1 S  1.15879000E+00  0.852161
 
  2 S  3.25840000E-01  1.000000
 
  3 S  1.02741000E-01  1.000000
 
  C (Carbon)
  ----------
            Exponent  Coefficients 
       -------------- ---------------------------------------------------------
  1 S  4.56324000E+03  0.001967
  1 S  6.82024000E+02  0.015231
  1 S  1.54973000E+02  0.076127
  1 S  4.44553000E+01  0.260801
  1 S  1.30290000E+01  0.616462
  1 S  1.82773000E+00  0.221006
 
  2 S  2.09642000E+01  0.114660
  2 S  4.80331000E+00  0.919999
  2 S  1.45933000E+00 -0.003031
 
  3 P  2.09642000E+01  0.040249
  3 P  4.80331000E+00  0.237594
  3 P  1.45933000E+00  0.815854
 
  4 S  4.83456000E-01  1.000000
 
  5 P  4.83456000E-01  1.000000
 
  6 S  1.45585000E-01  1.000000
 
  7 P  1.45585000E-01  1.000000
 
  8 S  4.38000000E-02  1.000000
 
  9 P  4.38000000E-02  1.000000
 
 10 D  6.26000000E-01  1.000000
 


 Summary of "ao basis" -> "" (cartesian)
 ------------------------------------------------------------------------------
       Tag                 Description            Shells   Functions and Types
 ---------------- ------------------------------  ------  ---------------------
 H                          6-311+G*                 3        3   3s
 C                          6-311+G*                10       23   5s4p1d


 
                                 NWChem DFT Module
                                 -----------------
 
 


 Summary of "ao basis" -> "ao basis" (cartesian)
 ------------------------------------------------------------------------------
       Tag                 Description            Shells   Functions and Types
 ---------------- ------------------------------  ------  ---------------------
 H                          6-311+G*                 3        3   3s
 C                          6-311+G*                10       23   5s4p1d


      Symmetry analysis of basis
      --------------------------
 
        ag        176
        au        176
 
 
 solvent parameters
 solvname_short: unknown 
 solvname_long:  unknown                            
 dielec:        2.5000
 dielecinf:     1.7769

          ---------------
          -cosmo- solvent
          ---------------
 Cosmo: York-Karplus, doi: 10.1021/jp992097l
 dielectric constant -eps-     =   2.50
 screen = (eps-1)/(eps    )    =   0.60000
 surface charge correction     = lagrangian
 -lineq- algorithm             =   0
 -bem- low  level              =   2
 -bem- from -octahedral-
 gaussian surface charge width =   0.98000
 degree of switching           =   1.00000
 switching function tolerance  =   0.00010
 atomic radii = 
 --------------
    1  6.000  2.000
    2  6.000  2.000
    3  1.000  1.300
    4  6.000  2.000
    5  1.000  1.300
    6  6.000  2.000
    7  6.000  2.000
    8  1.000  1.300
    9  6.000  2.000
   10  6.000  2.000
   11  1.000  1.300
   12  1.000  1.300
   13  6.000  2.000
   14  6.000  2.000
   15  6.000  2.000
   16  6.000  2.000
   17  1.000  1.300
   18  1.000  1.300
   19  6.000  2.000
   20  6.000  2.000
   21  1.000  1.300
   22  6.000  2.000
   23  1.000  1.300
   24  1.000  1.300

 solvent accessible surface
 --------------------------

 ---------- ATOMIC COORDINATES (A.U.) ------------ VDWR(ANG.) --
     1   -1.31434619    6.93094104   -0.00292226     2.000
     2   -2.67342713    4.68106634    0.03373494     2.000
     3   -2.31535615    8.72632448    0.04651506     1.300
     4    1.31568741    6.93223486    0.00943128     2.000
     5   -4.68429896    4.67711102   -0.35910126     1.300
     6   -1.34067589    2.32053735    0.00177224     2.000
     7    2.67139008    4.68105001   -0.04526663     2.000
     8    2.31717626    8.72555459    0.04247794     1.300
     9   -2.67926671   -0.00008838    0.07440849     2.000
    10    1.34045238    2.32105366   -0.02381278     2.000
    11    4.68502017    4.66542528    0.34645538     1.300
    12   -4.67822404   -0.00331239   -0.38610557     1.300
    13   -1.34045238   -2.32105366    0.02381278     2.000
    14    2.67926671    0.00008838   -0.07440849     2.000
    15   -2.67139008   -4.68105001    0.04526663     2.000
    16    1.34067589   -2.32053735   -0.00177224     2.000
    17    4.67822404    0.00331239    0.38610557     1.300
    18   -4.68502017   -4.66542528   -0.34645538     1.300
    19   -1.31568741   -6.93223486   -0.00943128     2.000
    20    2.67342713   -4.68106634   -0.03373494     2.000
    21   -2.31717626   -8.72555459   -0.04247794     1.300
    22    1.31434619   -6.93094104    0.00292226     2.000
    23    4.68429896   -4.67711102    0.35910126     1.300
    24    2.31535615   -8.72632448   -0.04651506     1.300
 number of segments per atom =         32
 number of   points per atom =         32
 atom (   nspa,  nppa )
 ----------------------
    1 (     14,     0 )       0
    2 (     14,     0 )       0
    3 (     16,     0 )       0
    4 (     14,     0 )       0
    5 (     16,     0 )       0
    6 (      8,     0 )       0
    7 (     14,     0 )       0
    8 (     16,     0 )       0
    9 (     14,     0 )       0
   10 (      8,     0 )       0
   11 (     16,     0 )       0
   12 (     14,     0 )       0
   13 (      8,     0 )       0
   14 (     14,     0 )       0
   15 (     14,     0 )       0
   16 (      8,     0 )       0
   17 (     14,     0 )       0
   18 (     16,     0 )       0
   19 (     14,     0 )       0
   20 (     14,     0 )       0
   21 (     16,     0 )       0
   22 (     14,     0 )       0
   23 (     16,     0 )       0
   24 (     16,     0 )       0
 number of -cosmo- surface points =      328
 molecular surface =    250.278 angstrom**2
 molecular volume  =    152.974 angstrom**3
 G(cav/disp)       =      2.111 kcal/mol
 ...... end of -cosmo- initialization ......


  Caching 1-el integrals 
 
            General Information
            -------------------
          SCF calculation type: DFT
          Wavefunction type:  closed shell.
          No. of atoms     :    24
          No. of electrons :    94
           Alpha electrons :    47
            Beta electrons :    47
          Charge           :     0
          Spin multiplicity:     1
          Use of symmetry is: on ; symmetry adaption is: on 
          Maximum number of iterations: 200
          AO basis - number of functions:   352
                     number of shells:   170
          Convergence on energy requested: 1.00D-04
          Convergence on density requested: 1.00D-04
          Convergence on gradient requested: 5.00D-04
 
              XC Information
              --------------
                         B3LYP Method XC Potential
                     Hartree-Fock (Exact) Exchange  0.200          
                        Slater Exchange Functional  0.800 local    
                    Becke 1988 Exchange Functional  0.720 non-local
              Lee-Yang-Parr Correlation Functional  0.810          
                  VWN I RPA Correlation Functional  0.190 local    
 
             Grid Information
             ----------------
          Grid used for XC integration:  fine      
          Radial quadrature: Mura-Knowles        
          Angular quadrature: Lebedev. 
          Tag              B.-S. Rad. Rad. Pts. Rad. Cut. Ang. Pts.
          ---              ---------- --------- --------- ---------
          C                   0.70       70          20.0       590
          H                   0.35       60          21.0       590
          Grid pruning is: on 
          Number of quadrature shells:   790
          Spatial weights used:  Erf1
 
          Convergence Information
          -----------------------
          Convergence aids based upon iterative change in 
          total energy or number of iterations. 
          Levelshifting, if invoked, occurs when the 
          HOMO/LUMO gap drops below (HL_TOL): 1.00D-02
          DIIS, if invoked, will attempt to extrapolate 
          using up to (NFOCK): 10 stored Fock matrices.

                    Damping( 0%)  Levelshifting(0.5)       DIIS
                  --------------- ------------------- ---------------
          dE  on:    start            ASAP                start   
          dE off:    2 iters        200 iters           200 iters 

 
      Screening Tolerance Information
      -------------------------------
          Density screening/tol_rho: 1.00D-10
          AO Gaussian exp screening on grid/accAOfunc:   9
          CD Gaussian exp screening on grid/accCDfunc:  20
          XC Gaussian exp screening on grid/accXCfunc:  20
          Schwarz screening/accCoul: 1.00D-08

 
 WARNING : Found    11 linear dependencies 
 S eigenvalue threshold:     1.00000E-05
 Smallest S eigenvalue :     9.33985E-08
 Largest  S eigenvalue :     9.33032E-06
 

 !! The overlap matrix has  11 vectors deemed linearly dependent with
    eigenvalues:
 9.34D-08 1.35D-07 5.35D-07 5.65D-07 7.97D-07 9.83D-07 2.06D-06 3.67D-06
 6.24D-06 6.71D-06 9.33D-06
 
 
      Superposition of Atomic Density Guess
      -------------------------------------
 
 Sum of atomic energies:        -532.36574223
 
      Non-variational initial energy
      ------------------------------

 Total energy =    -542.824586
 1-e energy   =   -2231.244906
 2-e energy   =     923.828925
 HOMO         =      -0.219980
 LUMO         =      -0.099457
 
 
      Symmetry analysis of molecular orbitals - initial
      -------------------------------------------------
 
  Numbering of irreducible representations: 
 
     1 ag          2 au      
 
  Orbital symmetries:
 
     1 ag          2 au          3 ag          4 au          5 au      
     6 ag          7 au          8 ag          9 ag         10 au      
    11 au         12 ag         13 ag         14 au         15 ag      
    16 au         17 ag         18 au         19 ag         20 au      
    21 au         22 ag         23 ag         24 ag         25 au      
    26 au         27 au         28 ag         29 ag         30 au      
    31 ag         32 au         33 au         34 ag         35 au      
    36 ag         37 au         38 ag         39 au         40 au      
    41 ag         42 au         43 ag         44 ag         45 au      
    46 ag         47 ag         48 au         49 au         50 ag      
    51 au         52 ag         53 au         54 au         55 ag      
    56 ag         57 ag      
 
   Time after variat. SCF:      6.0
   Time prior to 1st pass:      6.0

 Grid_pts file          = ./neutral.gridpts.00
 Record size in doubles =  12289        No. of grid_pts per rec  =   3070
 Max. records in memory =      5        Max. recs in file   =  21558523

 Grid integrated density:      94.495821535979
 Requested integration accuracy:   0.10E-06

           Memory utilization after 1st SCF pass: 
           Heap Space remaining (MW):       31.47            31471240
          Stack Space remaining (MW):       52.43            52426132

   convergence    iter        energy       DeltaE   RMS-Dens  Diis-err    time
 ---------------- ----- ----------------- --------- --------- ---------  ------
     COSMO gas phase
 d= 0,ls=0.0,diis     1   -539.7139644939 -1.30D+03  6.74D-03  3.13D+00    11.7
 Grid integrated density:      94.000032612182
 Requested integration accuracy:   0.10E-06
 d= 0,ls=0.0,diis     2   -539.6325143023  8.15D-02  3.51D-03  9.85D-02    17.1
 Grid integrated density:      94.000032913750
 Requested integration accuracy:   0.10E-06
 d= 0,ls=0.0,diis     3   -539.6111795590  2.13D-02  1.65D-03  2.50D-01    22.5
 Grid integrated density:      94.000056479649
 Requested integration accuracy:   0.10E-06
 d= 0,ls=0.0,diis     4   -539.6463211615 -3.51D-02  7.46D-04  5.87D-03    27.9
 Grid integrated density:      94.000056639921
 Requested integration accuracy:   0.10E-06
 d= 0,ls=0.0,diis     5   -539.6470155776 -6.94D-04  3.31D-04  6.88D-04    33.2
 Grid integrated density:      94.000056762480
 Requested integration accuracy:   0.10E-06
  Resetting Diis
 d= 0,ls=0.0,diis     6   -539.6470945260 -7.89D-05  1.59D-04  7.60D-05    38.6
 Grid integrated density:      94.000056824603
 Requested integration accuracy:   0.10E-06
 d= 0,ls=0.0,diis     7   -539.6471026510 -8.12D-06  5.59D-05  1.36D-05    44.0
 Grid integrated density:      94.000056860508
 Requested integration accuracy:   0.10E-06

           Memory utilization after 1st SCF pass: 
           Heap Space remaining (MW):       31.47            31470240
          Stack Space remaining (MW):       52.43            52426132

   convergence    iter        energy       DeltaE   RMS-Dens  Diis-err    time
 ---------------- ----- ----------------- --------- --------- ---------  ------
     COSMO solvation phase
 d= 0,ls=0.0,diis     1   -539.6522378382 -5.14D-03  3.03D-03  2.08D-03    50.7
 Grid integrated density:      94.000057388428
 Requested integration accuracy:   0.10E-06
 d= 0,ls=0.0,diis     2   -539.6526109790 -3.73D-04  3.45D-04  1.42D-03    57.4
 Grid integrated density:      94.000057559173
 Requested integration accuracy:   0.10E-06
 d= 0,ls=0.0,diis     3   -539.6527934011 -1.82D-04  1.02D-04  1.67D-04    64.1
 Grid integrated density:      94.000057579437
 Requested integration accuracy:   0.10E-06
 d= 0,ls=0.0,diis     4   -539.6528087185 -1.53D-05  2.65D-05  4.32D-05    70.9


         Total DFT energy =     -539.652808718455
      One electron energy =    -2244.330373530970
           Coulomb energy =     1019.238355530065
    Exchange-Corr. energy =      -79.738066534252
 Nuclear repulsion energy =      764.591394989882

    Dispersion correction =       -0.017628725561

             COSMO energy =        0.603509552380

 Numeric. integr. density =       94.000057579437

     Total iterative time =     64.9s


                  COSMO solvation results
                  -----------------------
  
                 gas phase energy =      -539.6647313766
                 sol phase energy =      -539.6704374440
 (electrostatic) solvation energy =         0.0057060674 (    3.58 kcal/mol)
 
                  Occupations of the irreducible representations
                  ----------------------------------------------
 
                     irrep           alpha         beta
                     --------     --------     --------
                     ag               24.0         24.0
                     au               23.0         23.0
 
 
                       DFT Final Molecular Orbital Analysis
                       ------------------------------------
 
 Vector   14  Occ=2.000000D+00  E=-1.018647D+01  Symmetry=au
              MO Center=  1.1D-11, -8.0D-15,  4.6D-14, r^2= 1.4D+01
   Bfn.  Coefficient  Atom+Function         Bfn.  Coefficient  Atom+Function  
  ----- ------------  ---------------      ----- ------------  ---------------
    50     -0.285133   4 C  s               275      0.285133  19 C  s         
     1      0.276265   1 C  s               324     -0.276265  22 C  s         
    51     -0.232407   4 C  s               276      0.232407  19 C  s         
     2      0.225179   1 C  s               325     -0.225179  22 C  s         
 
 Vector   15  Occ=2.000000D+00  E=-8.929208D-01  Symmetry=ag
              MO Center=  1.6D-14, -9.3D-14, -6.4D-16, r^2= 4.6D+00
   Bfn.  Coefficient  Atom+Function         Bfn.  Coefficient  Atom+Function  
  ----- ------------  ---------------      ----- ------------  ---------------
    81      0.190327   6 C  s               153      0.190380  10 C  s         
   182      0.190380  13 C  s               251      0.190327  16 C  s         
 
 Vector   16  Occ=2.000000D+00  E=-8.622617D-01  Symmetry=au
              MO Center=  4.0D-14, -2.5D-14,  2.3D-16, r^2= 8.5D+00
   Bfn.  Coefficient  Atom+Function         Bfn.  Coefficient  Atom+Function  
  ----- ------------  ---------------      ----- ------------  ---------------
     6      0.152420   1 C  s                55      0.152444   4 C  s         
   280     -0.152444  19 C  s               329     -0.152420  22 C  s         
 
 Vector   17  Occ=2.000000D+00  E=-8.123413D-01  Symmetry=ag
              MO Center= -9.4D-15,  2.1D-13,  1.3D-15, r^2= 9.8D+00
   Bfn.  Coefficient  Atom+Function         Bfn.  Coefficient  Atom+Function  
  ----- ------------  ---------------      ----- ------------  ---------------
     6      0.194152   1 C  s                55      0.194225   4 C  s         
   280      0.194225  19 C  s               329      0.194152  22 C  s         
 
 Vector   18  Occ=2.000000D+00  E=-7.910963D-01  Symmetry=au
              MO Center= -2.1D-14, -8.4D-14, -1.6D-15, r^2= 5.2D+00
   Bfn.  Coefficient  Atom+Function         Bfn.  Coefficient  Atom+Function  
  ----- ------------  ---------------      ----- ------------  ---------------
   130      0.212117   9 C  s               205     -0.212117  14 C  s         
 
 Vector   19  Occ=2.000000D+00  E=-7.581219D-01  Symmetry=ag
              MO Center= -1.8D-14,  1.6D-13,  1.5D-15, r^2= 8.8D+00
   Bfn.  Coefficient  Atom+Function         Bfn.  Coefficient  Atom+Function  
  ----- ------------  ---------------      ----- ------------  ---------------
    29      0.207555   2 C  s               104     -0.207269   7 C  s         
   228     -0.207269  15 C  s               303      0.207555  20 C  s         
 
 Vector   20  Occ=2.000000D+00  E=-7.536974D-01  Symmetry=au
              MO Center=  1.4D-14, -9.4D-14, -4.5D-16, r^2= 9.0D+00
   Bfn.  Coefficient  Atom+Function         Bfn.  Coefficient  Atom+Function  
  ----- ------------  ---------------      ----- ------------  ---------------
    81     -0.187315   6 C  s               153     -0.187181  10 C  s         
   182      0.187181  13 C  s               251      0.187315  16 C  s         
     6      0.181658   1 C  s                55      0.182087   4 C  s         
   280     -0.182087  19 C  s               329     -0.181658  22 C  s         
 
 Vector   21  Occ=2.000000D+00  E=-7.075037D-01  Symmetry=au
              MO Center= -1.0D-14, -6.8D-14, -2.2D-17, r^2= 8.8D+00
   Bfn.  Coefficient  Atom+Function         Bfn.  Coefficient  Atom+Function  
  ----- ------------  ---------------      ----- ------------  ---------------
   130      0.202086   9 C  s               205     -0.202086  14 C  s         
    29     -0.156007   2 C  s               104      0.155557   7 C  s         
   228     -0.155557  15 C  s               303      0.156007  20 C  s         
 
 Vector   22  Occ=2.000000D+00  E=-6.588798D-01  Symmetry=ag
              MO Center= -1.4D-15, -2.6D-15,  3.8D-15, r^2= 9.7D+00
   Bfn.  Coefficient  Atom+Function         Bfn.  Coefficient  Atom+Function  
  ----- ------------  ---------------      ----- ------------  ---------------
   130      0.158025   9 C  s               205      0.158025  14 C  s         
 
 Vector   23  Occ=2.000000D+00  E=-6.202594D-01  Symmetry=ag
              MO Center= -4.1D-14, -4.7D-14,  3.5D-16, r^2= 9.4D+00
   Bfn.  Coefficient  Atom+Function         Bfn.  Coefficient  Atom+Function  
  ----- ------------  ---------------      ----- ------------  ---------------
    63     -0.165026   4 C  s               288     -0.165026  19 C  s         
    14      0.162297   1 C  s               337      0.162297  22 C  s         
    81      0.153430   6 C  s               251      0.153430  16 C  s         
   153     -0.150493  10 C  s               182     -0.150493  13 C  s         
 
 Vector   24  Occ=2.000000D+00  E=-6.142871D-01  Symmetry=ag
              MO Center=  2.8D-14,  1.1D-12, -8.7D-16, r^2= 5.8D+00
   Bfn.  Coefficient  Atom+Function         Bfn.  Coefficient  Atom+Function  
  ----- ------------  ---------------      ----- ------------  ---------------
   130      0.165566   9 C  s               205      0.165566  14 C  s         
 
 Vector   25  Occ=2.000000D+00  E=-6.058295D-01  Symmetry=au
              MO Center=  2.3D-14, -1.1D-12, -1.6D-15, r^2= 1.0D+01
   Bfn.  Coefficient  Atom+Function         Bfn.  Coefficient  Atom+Function  
  ----- ------------  ---------------      ----- ------------  ---------------
    29      0.173810   2 C  s               104      0.174257   7 C  s         
   228     -0.174257  15 C  s               303     -0.173810  20 C  s         
 
 Vector   26  Occ=2.000000D+00  E=-5.459523D-01  Symmetry=au
              MO Center= -8.9D-15,  3.6D-14, -3.8D-16, r^2= 1.2D+01
   Bfn.  Coefficient  Atom+Function         Bfn.  Coefficient  Atom+Function  
  ----- ------------  ---------------      ----- ------------  ---------------
    14      0.222752   1 C  s                63     -0.221799   4 C  s         
   288      0.221799  19 C  s               337     -0.222752  22 C  s         
 
 Vector   27  Occ=2.000000D+00  E=-5.305136D-01  Symmetry=au
              MO Center= -5.4D-15, -2.4D-15,  1.4D-16, r^2= 1.1D+01
   Bfn.  Coefficient  Atom+Function         Bfn.  Coefficient  Atom+Function  
  ----- ------------  ---------------      ----- ------------  ---------------
    89      0.207854   6 C  s               161      0.207551  10 C  s         
   190     -0.207551  13 C  s               259     -0.207854  16 C  s         
    91     -0.184292   6 C  py              163     -0.183615  10 C  py        
   192     -0.183615  13 C  py              261     -0.184292  16 C  py        
    37      0.179431   2 C  s               311     -0.179431  20 C  s         
 
 Vector   28  Occ=2.000000D+00  E=-5.137325D-01  Symmetry=ag
              MO Center=  1.0D-15,  7.7D-15, -4.3D-16, r^2= 9.8D+00
   Bfn.  Coefficient  Atom+Function         Bfn.  Coefficient  Atom+Function  
  ----- ------------  ---------------      ----- ------------  ---------------
    37      0.564150   2 C  s               112      0.566493   7 C  s         
   236      0.566493  15 C  s               311      0.564150  20 C  s         
   138     -0.479620   9 C  s               213     -0.479620  14 C  s         
   163     -0.234334  10 C  py              192      0.234334  13 C  py        
    91     -0.232173   6 C  py              261      0.232173  16 C  py        
 
 Vector   29  Occ=2.000000D+00  E=-4.719169D-01  Symmetry=ag
              MO Center= -4.5D-15,  8.2D-15, -7.8D-16, r^2= 1.2D+01
   Bfn.  Coefficient  Atom+Function         Bfn.  Coefficient  Atom+Function  
  ----- ------------  ---------------      ----- ------------  ---------------
   108      0.118872   7 C  s               232      0.118872  15 C  s         
    33     -0.117609   2 C  s               307     -0.117609  20 C  s         
    59     -0.111322   4 C  s               284     -0.111322  19 C  s         
    10      0.110317   1 C  s               333      0.110317  22 C  s         
   140     -0.108991   9 C  py              215      0.108991  14 C  py        
 
 Vector   30  Occ=2.000000D+00  E=-4.716752D-01  Symmetry=ag
              MO Center=  1.4D-14,  7.8D-14,  2.6D-15, r^2= 1.3D+01
   Bfn.  Coefficient  Atom+Function         Bfn.  Coefficient  Atom+Function  
  ----- ------------  ---------------      ----- ------------  ---------------
    37      0.265227   2 C  s               311      0.265227  20 C  s         
   112      0.260230   7 C  s               236      0.260230  15 C  s         
    14     -0.179508   1 C  s               337     -0.179508  22 C  s         
    63     -0.164614   4 C  s               288     -0.164614  19 C  s         
 
 Vector   31  Occ=2.000000D+00  E=-4.643806D-01  Symmetry=au
              MO Center= -9.5D-15, -3.4D-15, -9.9D-16, r^2= 7.2D+00
   Bfn.  Coefficient  Atom+Function         Bfn.  Coefficient  Atom+Function  
  ----- ------------  ---------------      ----- ------------  ---------------
   131      0.144408   9 C  px              206      0.144408  14 C  px        
 
 Vector   32  Occ=2.000000D+00  E=-4.615119D-01  Symmetry=au
              MO Center= -9.8D-15, -2.9D-14, -9.6D-16, r^2= 9.3D+00
   Bfn.  Coefficient  Atom+Function         Bfn.  Coefficient  Atom+Function  
  ----- ------------  ---------------      ----- ------------  ---------------
   154      0.140333  10 C  px              183      0.140333  13 C  px        
    82     -0.138536   6 C  px              252     -0.138536  16 C  px        
     7      0.132321   1 C  px              330      0.132321  22 C  px        
    56     -0.131536   4 C  px              281     -0.131536  19 C  px        
 
 Vector   33  Occ=2.000000D+00  E=-4.314258D-01  Symmetry=ag
              MO Center=  1.7D-14, -1.4D-14,  1.5D-15, r^2= 1.1D+01
   Bfn.  Coefficient  Atom+Function         Bfn.  Coefficient  Atom+Function  
  ----- ------------  ---------------      ----- ------------  ---------------
    30      0.137984   2 C  px              304     -0.137984  20 C  px        
   105      0.136057   7 C  px              229     -0.136057  15 C  px        
 
 Vector   34  Occ=2.000000D+00  E=-4.232460D-01  Symmetry=au
              MO Center=  1.1D-13, -4.3D-15,  6.8D-15, r^2= 7.5D+00
   Bfn.  Coefficient  Atom+Function         Bfn.  Coefficient  Atom+Function  
  ----- ------------  ---------------      ----- ------------  ---------------
   131      0.157707   9 C  px              206      0.157707  14 C  px        
 
 Vector   35  Occ=2.000000D+00  E=-4.135373D-01  Symmetry=au
              MO Center= -4.8D-15, -5.3D-14, -9.5D-16, r^2= 7.7D+00
   Bfn.  Coefficient  Atom+Function         Bfn.  Coefficient  Atom+Function  
  ----- ------------  ---------------      ----- ------------  ---------------
   132     -0.141230   9 C  py              207     -0.141230  14 C  py        
    83      0.137338   6 C  py              155      0.137992  10 C  py        
   184      0.137992  13 C  py              253      0.137338  16 C  py        
 
 Vector   36  Occ=2.000000D+00  E=-4.084867D-01  Symmetry=au
              MO Center= -8.9D-16,  5.1D-15, -1.0D-15, r^2= 5.4D+00
   Bfn.  Coefficient  Atom+Function         Bfn.  Coefficient  Atom+Function  
  ----- ------------  ---------------      ----- ------------  ---------------
    84      0.132627   6 C  pz              156      0.132372  10 C  pz        
   185      0.132372  13 C  pz              254      0.132627  16 C  pz        
 
 Vector   37  Occ=2.000000D+00  E=-4.050248D-01  Symmetry=ag
              MO Center= -6.6D-14,  1.7D-13, -4.1D-15, r^2= 1.1D+01
   Bfn.  Coefficient  Atom+Function         Bfn.  Coefficient  Atom+Function  
  ----- ------------  ---------------      ----- ------------  ---------------
     7      0.140312   1 C  px               56     -0.140227   4 C  px        
   281      0.140227  19 C  px              330     -0.140312  22 C  px        
    14     -0.129292   1 C  s               337     -0.129292  22 C  s         
    63     -0.126674   4 C  s               288     -0.126674  19 C  s         
 
 Vector   38  Occ=2.000000D+00  E=-3.815240D-01  Symmetry=au
              MO Center=  2.6D-14,  2.1D-13, -5.2D-16, r^2= 1.4D+01
   Bfn.  Coefficient  Atom+Function         Bfn.  Coefficient  Atom+Function  
  ----- ------------  ---------------      ----- ------------  ---------------
     8      0.137718   1 C  py              331      0.137718  22 C  py        
    57     -0.136367   4 C  py              282     -0.136367  19 C  py        
 
 Vector   39  Occ=2.000000D+00  E=-3.732317D-01  Symmetry=ag
              MO Center=  8.6D-15,  6.2D-14,  1.7D-16, r^2= 9.4D+00
   Bfn.  Coefficient  Atom+Function         Bfn.  Coefficient  Atom+Function  
  ----- ------------  ---------------      ----- ------------  ---------------
     9      0.116493   1 C  pz               58      0.115997   4 C  pz        
   283     -0.115997  19 C  pz              332     -0.116493  22 C  pz        
    32      0.107821   2 C  pz              306     -0.107821  20 C  pz        
   107      0.106550   7 C  pz              231     -0.106550  15 C  pz        
 
 Vector   40  Occ=2.000000D+00  E=-3.655174D-01  Symmetry=au
              MO Center= -9.3D-15,  3.2D-13, -1.5D-15, r^2= 1.1D+01
   Bfn.  Coefficient  Atom+Function         Bfn.  Coefficient  Atom+Function  
  ----- ------------  ---------------      ----- ------------  ---------------
     7      0.125130   1 C  px               56     -0.125152   4 C  px        
   281     -0.125152  19 C  px              330      0.125130  22 C  px        
 
 Vector   41  Occ=2.000000D+00  E=-3.516957D-01  Symmetry=ag
              MO Center= -6.7D-14, -4.9D-13, -1.5D-15, r^2= 7.5D+00
   Bfn.  Coefficient  Atom+Function         Bfn.  Coefficient  Atom+Function  
  ----- ------------  ---------------      ----- ------------  ---------------
    82      0.131168   6 C  px              154     -0.131212  10 C  px        
   183      0.131212  13 C  px              252     -0.131168  16 C  px        
 
 Vector   42  Occ=2.000000D+00  E=-3.380626D-01  Symmetry=ag
              MO Center= -1.4D-14, -2.2D-13, -3.4D-16, r^2= 9.5D+00
   Bfn.  Coefficient  Atom+Function         Bfn.  Coefficient  Atom+Function  
  ----- ------------  ---------------      ----- ------------  ---------------
   136      0.136080   9 C  py              211     -0.136080  14 C  py        
   132      0.134441   9 C  py              207     -0.134441  14 C  py        
    83     -0.127279   6 C  py              155      0.127156  10 C  py        
   184     -0.127156  13 C  py              253      0.127279  16 C  py        
    31      0.123122   2 C  py              106     -0.123560   7 C  py        
 
 Vector   43  Occ=2.000000D+00  E=-3.166195D-01  Symmetry=au
              MO Center=  2.1D-15, -8.4D-15,  1.0D-15, r^2= 1.1D+01
   Bfn.  Coefficient  Atom+Function         Bfn.  Coefficient  Atom+Function  
  ----- ------------  ---------------      ----- ------------  ---------------
     9      0.156533   1 C  pz               58      0.157028   4 C  pz        
   283      0.157028  19 C  pz              332      0.156533  22 C  pz        
 
 Vector   44  Occ=2.000000D+00  E=-3.007884D-01  Symmetry=ag
              MO Center=  6.2D-15, -1.2D-14, -7.5D-16, r^2= 5.9D+00
   Bfn.  Coefficient  Atom+Function         Bfn.  Coefficient  Atom+Function  
  ----- ------------  ---------------      ----- ------------  ---------------
   133      0.147478   9 C  pz              208     -0.147478  14 C  pz        
   137      0.135373   9 C  pz              212     -0.135373  14 C  pz        
 
 Vector   45  Occ=2.000000D+00  E=-2.645977D-01  Symmetry=au
              MO Center=  1.3D-14,  0.0D+00, -3.1D-16, r^2= 9.4D+00
   Bfn.  Coefficient  Atom+Function         Bfn.  Coefficient  Atom+Function  
  ----- ------------  ---------------      ----- ------------  ---------------
    32      0.165464   2 C  pz              107     -0.164926   7 C  pz        
   231     -0.164926  15 C  pz              306      0.165464  20 C  pz        
    36      0.152808   2 C  pz              111     -0.152303   7 C  pz        
   235     -0.152303  15 C  pz              310      0.152808  20 C  pz        
 
 Vector   46  Occ=2.000000D+00  E=-2.592724D-01  Symmetry=ag
              MO Center= -1.5D-14, -2.9D-14,  2.7D-15, r^2= 8.6D+00
   Bfn.  Coefficient  Atom+Function         Bfn.  Coefficient  Atom+Function  
  ----- ------------  ---------------      ----- ------------  ---------------
    84      0.159830   6 C  pz              156      0.159943  10 C  pz        
   185     -0.159943  13 C  pz              254     -0.159830  16 C  pz        
 
 Vector   47  Occ=2.000000D+00  E=-2.044426D-01  Symmetry=ag
              MO Center=  1.0D-13,  2.0D-14, -1.4D-14, r^2= 8.3D+00
   Bfn.  Coefficient  Atom+Function         Bfn.  Coefficient  Atom+Function  
  ----- ------------  ---------------      ----- ------------  ---------------
   112      0.268900   7 C  s               236      0.268900  15 C  s         
    37      0.266339   2 C  s               311      0.266339  20 C  s         
   138     -0.245566   9 C  s               213     -0.245566  14 C  s         
   137      0.192606   9 C  pz              212     -0.192606  14 C  pz        
   133      0.182197   9 C  pz              208     -0.182197  14 C  pz        
 
 Vector   48  Occ=0.000000D+00  E=-8.476781D-02  Symmetry=au
              MO Center= -9.3D-14, -6.1D-14,  9.7D-15, r^2= 8.7D+00
   Bfn.  Coefficient  Atom+Function         Bfn.  Coefficient  Atom+Function  
  ----- ------------  ---------------      ----- ------------  ---------------
   137      0.260233   9 C  pz              212      0.260233  14 C  pz        
    36     -0.198870   2 C  pz              111     -0.198812   7 C  pz        
   235     -0.198812  15 C  pz              310     -0.198870  20 C  pz        
   133      0.180738   9 C  pz              208      0.180738  14 C  pz        
   141      0.155293   9 C  pz              216      0.155293  14 C  pz        
 
 Vector   49  Occ=0.000000D+00  E=-2.568519D-02  Symmetry=au
              MO Center=  2.4D-15,  5.9D-15, -4.6D-16, r^2= 9.8D+00
   Bfn.  Coefficient  Atom+Function         Bfn.  Coefficient  Atom+Function  
  ----- ------------  ---------------      ----- ------------  ---------------
    92      0.353507   6 C  pz              164     -0.353178  10 C  pz        
   193     -0.353178  13 C  pz              262      0.353507  16 C  pz        
    88      0.286745   6 C  pz              160     -0.285990  10 C  pz        
   189     -0.285990  13 C  pz              258      0.286745  16 C  pz        
    13     -0.262567   1 C  pz               17     -0.263855   1 C  pz        
 
 Vector   50  Occ=0.000000D+00  E=-2.352997D-02  Symmetry=ag
              MO Center=  8.3D-16,  6.6D-14,  1.9D-15, r^2= 1.1D+01
   Bfn.  Coefficient  Atom+Function         Bfn.  Coefficient  Atom+Function  
  ----- ------------  ---------------      ----- ------------  ---------------
    40      0.340717   2 C  pz              115      0.339101   7 C  pz        
   239     -0.339101  15 C  pz              314     -0.340717  20 C  pz        
    36      0.292691   2 C  pz              111      0.292401   7 C  pz        
   235     -0.292401  15 C  pz              310     -0.292691  20 C  pz        
    92     -0.185424   6 C  pz              262      0.185424  16 C  pz        
 
 Vector   51  Occ=0.000000D+00  E=-7.273474D-03  Symmetry=au
              MO Center= -2.9D-14, -5.2D-15, -1.3D-13, r^2= 8.8D+00
   Bfn.  Coefficient  Atom+Function         Bfn.  Coefficient  Atom+Function  
  ----- ------------  ---------------      ----- ------------  ---------------
   141      0.587979   9 C  pz              216      0.587979  14 C  pz        
    92     -0.388031   6 C  pz              262     -0.388031  16 C  pz        
   164     -0.384349  10 C  pz              193     -0.384349  13 C  pz        
    40      0.348914   2 C  pz              314      0.348914  20 C  pz        
   115      0.345725   7 C  pz              239      0.345725  15 C  pz        
 
 Vector   52  Occ=0.000000D+00  E= 4.049740D-03  Symmetry=ag
              MO Center=  4.0D-13, -1.5D-11,  3.7D-14, r^2= 2.6D+01
   Bfn.  Coefficient  Atom+Function         Bfn.  Coefficient  Atom+Function  
  ----- ------------  ---------------      ----- ------------  ---------------
   112      2.781379   7 C  s               236      2.781379  15 C  s         
    37      2.764010   2 C  s               311      2.764010  20 C  s         
    14     -2.272619   1 C  s               337     -2.272619  22 C  s         
    63     -2.213824   4 C  s               288     -2.213824  19 C  s         
   138     -1.362318   9 C  s               213     -1.362318  14 C  s         
 
 Vector   53  Occ=0.000000D+00  E= 1.030105D-02  Symmetry=au
              MO Center= -3.3D-12,  1.4D-11, -1.1D-13, r^2= 3.3D+01
   Bfn.  Coefficient  Atom+Function         Bfn.  Coefficient  Atom+Function  
  ----- ------------  ---------------      ----- ------------  ---------------
    89     -2.840774   6 C  s               161     -2.836872  10 C  s         
   190      2.836872  13 C  s               259      2.840774  16 C  s         
    14      2.729038   1 C  s                63      2.722470   4 C  s         
   288     -2.722470  19 C  s               337     -2.729038  22 C  s         
    37     -2.529116   2 C  s               311      2.529116  20 C  s         
 
 Vector   54  Occ=0.000000D+00  E= 1.636053D-02  Symmetry=au
              MO Center= -7.1D-13, -9.8D-13,  3.1D-15, r^2= 2.3D+01
   Bfn.  Coefficient  Atom+Function         Bfn.  Coefficient  Atom+Function  
  ----- ------------  ---------------      ----- ------------  ---------------
    63     -0.948390   4 C  s               288      0.948390  19 C  s         
    14      0.927454   1 C  s               337     -0.927454  22 C  s         
    38     -0.716605   2 C  px              113     -0.716258   7 C  px        
   237     -0.716258  15 C  px              312     -0.716605  20 C  px        
    16      0.554045   1 C  py              339      0.554045  22 C  py        
 
 Vector   55  Occ=0.000000D+00  E= 2.972233D-02  Symmetry=ag
              MO Center=  6.5D-15,  7.4D-13,  2.6D-14, r^2= 2.9D+01
   Bfn.  Coefficient  Atom+Function         Bfn.  Coefficient  Atom+Function  
  ----- ------------  ---------------      ----- ------------  ---------------
    91      0.870629   6 C  py              261     -0.870629  16 C  py        
   163      0.864803  10 C  py              192     -0.864803  13 C  py        
   138      0.827633   9 C  s               213      0.827633  14 C  s         
    16      0.726242   1 C  py              339     -0.726242  22 C  py        
    65      0.710816   4 C  py              290     -0.710816  19 C  py        
 
 Vector   56  Occ=0.000000D+00  E= 3.218360D-02  Symmetry=ag
              MO Center=  4.2D-12, -4.1D-12, -7.9D-14, r^2= 3.2D+01
   Bfn.  Coefficient  Atom+Function         Bfn.  Coefficient  Atom+Function  
  ----- ------------  ---------------      ----- ------------  ---------------
    14      3.545933   1 C  s               337      3.545933  22 C  s         
    63     -3.507768   4 C  s               288     -3.507768  19 C  s         
   140      3.235387   9 C  py              215     -3.235387  14 C  py        
    89     -2.423541   6 C  s               161      2.425675  10 C  s         
   190      2.425675  13 C  s               259     -2.423541  16 C  s         
 
 Vector   57  Occ=0.000000D+00  E= 4.156254D-02  Symmetry=ag
              MO Center= -2.4D-12,  4.6D-13, -2.1D-13, r^2= 1.5D+01
   Bfn.  Coefficient  Atom+Function         Bfn.  Coefficient  Atom+Function  
  ----- ------------  ---------------      ----- ------------  ---------------
   112      3.337807   7 C  s               236      3.337807  15 C  s         
    37      3.316348   2 C  s               311      3.316348  20 C  s         
   138     -2.129984   9 C  s               213     -2.129984  14 C  s         
    92     -1.351395   6 C  pz              262      1.351395  16 C  pz        
   164      1.338910  10 C  pz              193     -1.338910  13 C  pz        
 
 Vector   58  Occ=0.000000D+00  E= 4.350598D-02  Symmetry=ag
              MO Center=  5.4D-13,  3.1D-12,  1.8D-13, r^2= 1.6D+01
   Bfn.  Coefficient  Atom+Function         Bfn.  Coefficient  Atom+Function  
  ----- ------------  ---------------      ----- ------------  ---------------
   112      3.429571   7 C  s               236      3.429571  15 C  s         
    37      3.403200   2 C  s               311      3.403200  20 C  s         
   138     -2.101808   9 C  s               213     -2.101808  14 C  s         
    14     -1.186548   1 C  s               337     -1.186548  22 C  s         
    38      1.152073   2 C  px              312     -1.152073  20 C  px        
 
 Vector   59  Occ=0.000000D+00  E= 5.052148D-02  Symmetry=au
              MO Center=  3.1D-12,  4.2D-12, -2.8D-12, r^2= 3.0D+01
   Bfn.  Coefficient  Atom+Function         Bfn.  Coefficient  Atom+Function  
  ----- ------------  ---------------      ----- ------------  ---------------
    14      6.331016   1 C  s               337     -6.331016  22 C  s         
    63     -6.046414   4 C  s               288      6.046414  19 C  s         
    15      3.785829   1 C  px              338      3.785829  22 C  px        
    64      3.695419   4 C  px              289      3.695419  19 C  px        
   112     -3.099182   7 C  s               236      3.099182  15 C  s         
 
 Vector   60  Occ=0.000000D+00  E= 5.140254D-02  Symmetry=au
              MO Center= -4.3D-13, -2.1D-12, -2.1D-13, r^2= 3.2D+01
   Bfn.  Coefficient  Atom+Function         Bfn.  Coefficient  Atom+Function  
  ----- ------------  ---------------      ----- ------------  ---------------
    63      3.118540   4 C  s               288     -3.118540  19 C  s         
    37     -2.650960   2 C  s               311      2.650960  20 C  s         
   140      2.123239   9 C  py              215      2.123239  14 C  py        
   162     -1.877365  10 C  px              191     -1.877365  13 C  px        
   112     -1.786375   7 C  s               236      1.786375  15 C  s         
 
 Vector   61  Occ=0.000000D+00  E= 5.310249D-02  Symmetry=au
              MO Center=  1.5D-12,  1.4D-12,  2.2D-12, r^2= 2.2D+01
   Bfn.  Coefficient  Atom+Function         Bfn.  Coefficient  Atom+Function  
  ----- ------------  ---------------      ----- ------------  ---------------
    14      4.379585   1 C  s               337     -4.379585  22 C  s         
    63     -3.826268   4 C  s               288      3.826268  19 C  s         
    15      2.514677   1 C  px              338      2.514677  22 C  px        
    64      2.431906   4 C  px              289      2.431906  19 C  px        
   112     -2.258220   7 C  s               236      2.258220  15 C  s         
 
 Vector   62  Occ=0.000000D+00  E= 5.921819D-02  Symmetry=ag
              MO Center=  2.5D-12,  1.9D-12, -1.6D-13, r^2= 1.9D+01
   Bfn.  Coefficient  Atom+Function         Bfn.  Coefficient  Atom+Function  
  ----- ------------  ---------------      ----- ------------  ---------------
    37      3.830715   2 C  s               112      3.848587   7 C  s         
   236      3.848587  15 C  s               311      3.830715  20 C  s         
    92      3.093044   6 C  pz              164     -3.100416  10 C  pz        
   193      3.100416  13 C  pz              262     -3.093044  16 C  pz        
   141     -2.466709   9 C  pz              216      2.466709  14 C  pz        
 
 Vector   63  Occ=0.000000D+00  E= 6.215990D-02  Symmetry=ag
              MO Center= -5.6D-17,  8.6D-13, -9.4D-15, r^2= 2.5D+01
   Bfn.  Coefficient  Atom+Function         Bfn.  Coefficient  Atom+Function  
  ----- ------------  ---------------      ----- ------------  ---------------
    40      0.488480   2 C  pz              314     -0.488480  20 C  pz        
   115      0.481054   7 C  pz              239     -0.481054  15 C  pz        
    92     -0.422599   6 C  pz              112      0.423078   7 C  s         
   236      0.423078  15 C  s               262      0.422599  16 C  pz        
    14     -0.410440   1 C  s               337     -0.410440  22 C  s         
 
 Vector   64  Occ=0.000000D+00  E= 6.737510D-02  Symmetry=au
              MO Center= -1.7D-13, -2.3D-12,  8.0D-13, r^2= 1.8D+01
   Bfn.  Coefficient  Atom+Function         Bfn.  Coefficient  Atom+Function  
  ----- ------------  ---------------      ----- ------------  ---------------
    37      3.919446   2 C  s               112      3.902522   7 C  s         
   236     -3.902522  15 C  s               311     -3.919446  20 C  s         
    89      3.795909   6 C  s               161      3.790474  10 C  s         
   190     -3.790474  13 C  s               259     -3.795909  16 C  s         
    14     -3.282656   1 C  s               337      3.282656  22 C  s         
 
 Vector   65  Occ=0.000000D+00  E= 7.476326D-02  Symmetry=ag
              MO Center= -3.8D-12, -1.2D-12, -2.9D-13, r^2= 2.9D+01
   Bfn.  Coefficient  Atom+Function         Bfn.  Coefficient  Atom+Function  
  ----- ------------  ---------------      ----- ------------  ---------------
   112     19.036464   7 C  s               236     19.036464  15 C  s         
    37     18.896553   2 C  s               311     18.896553  20 C  s         
   138    -12.039791   9 C  s               213    -12.039791  14 C  s         
    14     -8.528286   1 C  s               337     -8.528286  22 C  s         
    63     -7.790201   4 C  s               288     -7.790201  19 C  s         
 
 Vector   66  Occ=0.000000D+00  E= 7.855594D-02  Symmetry=ag
              MO Center= -1.4D-12, -2.9D-13, -1.1D-12, r^2= 3.1D+01
   Bfn.  Coefficient  Atom+Function         Bfn.  Coefficient  Atom+Function  
  ----- ------------  ---------------      ----- ------------  ---------------
    63     -7.091311   4 C  s               288     -7.091311  19 C  s         
    14      6.926220   1 C  s               337      6.926220  22 C  s         
    89     -4.692455   6 C  s               259     -4.692455  16 C  s         
   161      4.486707  10 C  s               190      4.486707  13 C  s         
    90      3.738624   6 C  px              140      3.749493   9 C  py        
 
 Vector   67  Occ=0.000000D+00  E= 9.161362D-02  Symmetry=au
              MO Center= -3.5D-14, -1.5D-12,  1.8D-13, r^2= 2.4D+01
   Bfn.  Coefficient  Atom+Function         Bfn.  Coefficient  Atom+Function  
  ----- ------------  ---------------      ----- ------------  ---------------
    92      2.446374   6 C  pz              164     -2.448489  10 C  pz        
   193     -2.448489  13 C  pz              262      2.446374  16 C  pz        
    40     -1.961678   2 C  pz              115      1.970953   7 C  pz        
   239      1.970953  15 C  pz              314     -1.961678  20 C  pz        
   112      1.809259   7 C  s               236     -1.809259  15 C  s         
 
 Vector   68  Occ=0.000000D+00  E= 9.474484D-02  Symmetry=au
              MO Center= -6.3D-14,  7.3D-15, -3.4D-14, r^2= 2.2D+01
   Bfn.  Coefficient  Atom+Function         Bfn.  Coefficient  Atom+Function  
  ----- ------------  ---------------      ----- ------------  ---------------
    14      0.927581   1 C  s               337     -0.927581  22 C  s         
    63     -0.847934   4 C  s               288      0.847934  19 C  s         
    66      0.703368   4 C  pz              291      0.703368  19 C  pz        
    17      0.692094   1 C  pz              340      0.692094  22 C  pz        
   112     -0.525662   7 C  s               236      0.525662  15 C  s         
 
 Vector   69  Occ=0.000000D+00  E= 1.125189D-01  Symmetry=ag
              MO Center= -5.0D-13,  7.4D-13,  5.2D-13, r^2= 1.9D+01
   Bfn.  Coefficient  Atom+Function         Bfn.  Coefficient  Atom+Function  
  ----- ------------  ---------------      ----- ------------  ---------------
   138     10.898304   9 C  s               213     10.898304  14 C  s         
    63     -6.810992   4 C  s               288     -6.810992  19 C  s         
    14     -6.754830   1 C  s               337     -6.754830  22 C  s         
    89      5.922781   6 C  s               259      5.922781  16 C  s         
   161      5.858287  10 C  s               190      5.858287  13 C  s         
 
 Vector   70  Occ=0.000000D+00  E= 1.156934D-01  Symmetry=au
              MO Center= -1.2D-13, -2.6D-12,  1.1D-13, r^2= 2.2D+01
   Bfn.  Coefficient  Atom+Function         Bfn.  Coefficient  Atom+Function  
  ----- ------------  ---------------      ----- ------------  ---------------
   113      1.539766   7 C  px              237      1.539766  15 C  px        
    38      1.525479   2 C  px              312      1.525479  20 C  px        
    39     -1.305977   2 C  py              313     -1.305977  20 C  py        
   114      1.273471   7 C  py              238      1.273471  15 C  py        
    64     -1.202722   4 C  px               91      1.203026   6 C  py        
 
 Vector   71  Occ=0.000000D+00  E= 1.179939D-01  Symmetry=au
              MO Center= -1.5D-14, -2.3D-13, -2.2D-14, r^2= 2.3D+01
   Bfn.  Coefficient  Atom+Function         Bfn.  Coefficient  Atom+Function  
  ----- ------------  ---------------      ----- ------------  ---------------
    14      2.166365   1 C  s               337     -2.166365  22 C  s         
   112     -2.114395   7 C  s               236      2.114395  15 C  s         
    37     -1.773109   2 C  s               311      1.773109  20 C  s         
    17     -1.709650   1 C  pz               66      1.716672   4 C  pz        
   291      1.716672  19 C  pz              340     -1.709650  22 C  pz        
 
 Vector   72  Occ=0.000000D+00  E= 1.196447D-01  Symmetry=au
              MO Center= -2.0D-12,  2.0D-12, -5.1D-14, r^2= 2.4D+01
   Bfn.  Coefficient  Atom+Function         Bfn.  Coefficient  Atom+Function  
  ----- ------------  ---------------      ----- ------------  ---------------
    63      3.910467   4 C  s               288     -3.910467  19 C  s         
    14     -3.202329   1 C  s               337      3.202329  22 C  s         
    15     -2.418797   1 C  px              338     -2.418797  22 C  px        
    37     -2.208644   2 C  s               311      2.208644  20 C  s         
   114      1.933878   7 C  py              238      1.933878  15 C  py        
 
 Vector   73  Occ=0.000000D+00  E= 1.230378D-01  Symmetry=au
              MO Center=  2.7D-14,  2.1D-13, -3.3D-14, r^2= 2.4D+01
   Bfn.  Coefficient  Atom+Function         Bfn.  Coefficient  Atom+Function  
  ----- ------------  ---------------      ----- ------------  ---------------
   140      1.976303   9 C  py              215      1.976303  14 C  py        
    91     -1.663628   6 C  py              261     -1.663628  16 C  py        
    14      1.488632   1 C  s                17      1.495042   1 C  pz        
    64      1.492158   4 C  px              289      1.492158  19 C  px        
   337     -1.488632  22 C  s               340      1.495042  22 C  pz        
 
 Vector   74  Occ=0.000000D+00  E= 1.272861D-01  Symmetry=ag
              MO Center=  5.4D-13, -1.5D-13,  2.4D-12, r^2= 2.6D+01
   Bfn.  Coefficient  Atom+Function         Bfn.  Coefficient  Atom+Function  
  ----- ------------  ---------------      ----- ------------  ---------------
   112      5.472242   7 C  s               236      5.472242  15 C  s         
    37      5.323028   2 C  s               311      5.323028  20 C  s         
   138     -3.483471   9 C  s               213     -3.483471  14 C  s         
    14     -2.604799   1 C  s               337     -2.604799  22 C  s         
    66      2.184365   4 C  pz              291     -2.184365  19 C  pz        
 
 Vector   75  Occ=0.000000D+00  E= 1.298707D-01  Symmetry=ag
              MO Center=  6.7D-16, -1.7D-14,  3.6D-13, r^2= 2.6D+01
   Bfn.  Coefficient  Atom+Function         Bfn.  Coefficient  Atom+Function  
  ----- ------------  ---------------      ----- ------------  ---------------
    40      1.766210   2 C  pz              115      1.758077   7 C  pz        
   239     -1.758077  15 C  pz              314     -1.766210  20 C  pz        
    17     -1.093333   1 C  pz              340      1.093333  22 C  pz        
    66     -1.069073   4 C  pz              291      1.069073  19 C  pz        
    63      0.946600   4 C  s               288      0.946600  19 C  s         
 
 Vector   76  Occ=0.000000D+00  E= 1.352025D-01  Symmetry=au
              MO Center= -1.5D-13,  4.6D-13, -5.2D-13, r^2= 1.6D+01
   Bfn.  Coefficient  Atom+Function         Bfn.  Coefficient  Atom+Function  
  ----- ------------  ---------------      ----- ------------  ---------------
   141      2.067568   9 C  pz              216      2.067568  14 C  pz        
    92     -1.781563   6 C  pz              262     -1.781563  16 C  pz        
   164     -1.740623  10 C  pz              193     -1.740623  13 C  pz        
    40      1.134653   2 C  pz              314      1.134653  20 C  pz        
    63     -1.112998   4 C  s               288      1.112998  19 C  s         
 
 Vector   77  Occ=0.000000D+00  E= 1.436014D-01  Symmetry=ag
              MO Center=  5.8D-13,  3.8D-13,  1.2D-14, r^2= 2.6D+01
   Bfn.  Coefficient  Atom+Function         Bfn.  Coefficient  Atom+Function  
  ----- ------------  ---------------      ----- ------------  ---------------
    63    -12.626623   4 C  s               288    -12.626623  19 C  s         
    14     12.425356   1 C  s               337     12.425356  22 C  s         
    39     -6.090353   2 C  py              114      6.112914   7 C  py        
   238     -6.112914  15 C  py               89     -6.067631   6 C  s         
   259     -6.067631  16 C  s               313      6.090353  20 C  py        
 
 Vector   78  Occ=0.000000D+00  E= 1.477811D-01  Symmetry=ag
              MO Center=  2.4D-13,  1.1D-13, -8.5D-15, r^2= 2.1D+01
   Bfn.  Coefficient  Atom+Function         Bfn.  Coefficient  Atom+Function  
  ----- ------------  ---------------      ----- ------------  ---------------
    16     -2.905481   1 C  py              339      2.905481  22 C  py        
    65      2.859336   4 C  py              290     -2.859336  19 C  py        
    14      2.689461   1 C  s               337      2.689461  22 C  s         
    63     -2.568597   4 C  s               288     -2.568597  19 C  s         
   140      2.434248   9 C  py              215     -2.434248  14 C  py        
 
 Vector   79  Occ=0.000000D+00  E= 1.551101D-01  Symmetry=ag
              MO Center=  1.9D-11,  1.5D-11, -1.2D-12, r^2= 3.1D+01
   Bfn.  Coefficient  Atom+Function         Bfn.  Coefficient  Atom+Function  
  ----- ------------  ---------------      ----- ------------  ---------------
    14     17.278923   1 C  s               337     17.278923  22 C  s         
    63     17.128836   4 C  s               288     17.128836  19 C  s         
   112    -12.596473   7 C  s               236    -12.596473  15 C  s         
    37    -12.501518   2 C  s               311    -12.501518  20 C  s         
   114     -7.128931   7 C  py              238      7.128931  15 C  py        
 
 Vector   80  Occ=0.000000D+00  E= 1.617427D-01  Symmetry=ag
              MO Center= -2.0D-12,  3.3D-11, -2.5D-12, r^2= 2.6D+01
   Bfn.  Coefficient  Atom+Function         Bfn.  Coefficient  Atom+Function  
  ----- ------------  ---------------      ----- ------------  ---------------
   138      6.626705   9 C  s               213      6.626705  14 C  s         
    89      3.915290   6 C  s               259      3.915290  16 C  s         
   161      3.848968  10 C  s               190      3.848968  13 C  s         
    14     -3.354346   1 C  s                63     -3.369908   4 C  s         
   288     -3.369908  19 C  s               337     -3.354346  22 C  s         
 
 Vector   81  Occ=0.000000D+00  E= 1.622855D-01  Symmetry=au
              MO Center= -4.4D-13, -4.0D-11,  8.8D-13, r^2= 2.5D+01
   Bfn.  Coefficient  Atom+Function         Bfn.  Coefficient  Atom+Function  
  ----- ------------  ---------------      ----- ------------  ---------------
    38      2.526484   2 C  px              113     -2.533093   7 C  px        
   237     -2.533093  15 C  px               90     -2.519221   6 C  px        
   162      2.518652  10 C  px              191      2.518652  13 C  px        
   260     -2.519221  16 C  px              312      2.526484  20 C  px        
    15     -1.822616   1 C  px              338     -1.822616  22 C  px        
 
 Vector   82  Occ=0.000000D+00  E= 1.720310D-01  Symmetry=ag
              MO Center=  1.7D-13, -1.1D-14, -4.6D-13, r^2= 1.6D+01
   Bfn.  Coefficient  Atom+Function         Bfn.  Coefficient  Atom+Function  
  ----- ------------  ---------------      ----- ------------  ---------------
   164      2.395031  10 C  pz              193     -2.395031  13 C  pz        
    92      2.318109   6 C  pz              262     -2.318109  16 C  pz        
    40     -1.790652   2 C  pz              115     -1.792787   7 C  pz        
   239      1.792787  15 C  pz              314      1.790652  20 C  pz        
    14      1.148016   1 C  s               337      1.148016  22 C  s         
 
 Vector   83  Occ=0.000000D+00  E= 1.723973D-01  Symmetry=au
              MO Center= -8.5D-13, -4.6D-12, -7.0D-13, r^2= 2.8D+01
[...]
  ----- ------------  ---------------      ----- ------------  ---------------
   112      8.817663   7 C  s               236      8.817663  15 C  s         
    37      8.740583   2 C  s               311      8.740583  20 C  s         
   138     -8.097855   9 C  s               213     -8.097855  14 C  s         
    89     -3.879586   6 C  s                91     -3.866165   6 C  py        
   259     -3.879586  16 C  s               261      3.866165  16 C  py        
 
 Vector  107  Occ=0.000000D+00  E= 2.773780D-01  Symmetry=ag
              MO Center= -1.3D-11, -3.6D-12,  3.3D-12, r^2= 2.5D+01
   Bfn.  Coefficient  Atom+Function         Bfn.  Coefficient  Atom+Function  
  ----- ------------  ---------------      ----- ------------  ---------------
    14     47.740278   1 C  s                63     47.917561   4 C  s         
   288     47.917561  19 C  s               337     47.740278  22 C  s         
   112    -45.104954   7 C  s               236    -45.104954  15 C  s         
    37    -44.792018   2 C  s               311    -44.792018  20 C  s         
   114    -21.148484   7 C  py              238     21.148484  15 C  py        
 
 Vector  108  Occ=0.000000D+00  E= 2.842218D-01  Symmetry=au
              MO Center=  4.6D-11,  2.5D-11, -3.4D-11, r^2= 1.9D+01
   Bfn.  Coefficient  Atom+Function         Bfn.  Coefficient  Atom+Function  
  ----- ------------  ---------------      ----- ------------  ---------------
    14     34.904289   1 C  s                63    -34.875796   4 C  s         
   288     34.875796  19 C  s               337    -34.904289  22 C  s         
    15     19.714000   1 C  px               64     19.772481   4 C  px        
   289     19.772481  19 C  px              338     19.714000  22 C  px        
   112    -16.726499   7 C  s               236     16.726499  15 C  s         
 
 Vector  109  Occ=0.000000D+00  E= 2.963832D-01  Symmetry=ag
              MO Center= -7.7D-11, -2.3D-11,  6.4D-11, r^2= 1.8D+01
   Bfn.  Coefficient  Atom+Function         Bfn.  Coefficient  Atom+Function  
  ----- ------------  ---------------      ----- ------------  ---------------
   138     59.768860   9 C  s               213     59.768860  14 C  s         
   112    -39.326654   7 C  s               236    -39.326654  15 C  s         
    37    -39.103849   2 C  s               311    -39.103849  20 C  s         
    89     30.568288   6 C  s               259     30.568288  16 C  s         
   161     29.763720  10 C  s               190     29.763720  13 C  s         
 
 Vector  110  Occ=0.000000D+00  E= 2.994859D-01  Symmetry=au
              MO Center=  4.4D-11,  6.6D-12, -3.4D-11, r^2= 1.5D+01
   Bfn.  Coefficient  Atom+Function         Bfn.  Coefficient  Atom+Function  
  ----- ------------  ---------------      ----- ------------  ---------------
    63    -17.889279   4 C  s               288     17.889279  19 C  s         
    14     17.666778   1 C  s               337    -17.666778  22 C  s         
    15      9.397552   1 C  px              338      9.397552  22 C  px        
    64      9.294115   4 C  px              289      9.294115  19 C  px        
    37      7.806007   2 C  s               311     -7.806007  20 C  s         
 
 Vector  111  Occ=0.000000D+00  E= 3.069871D-01  Symmetry=au
              MO Center=  1.1D-12, -7.4D-12, -1.8D-12, r^2= 1.4D+01
   Bfn.  Coefficient  Atom+Function         Bfn.  Coefficient  Atom+Function  
  ----- ------------  ---------------      ----- ------------  ---------------
   163      8.497875  10 C  py              192      8.497875  13 C  py        
    91      8.360489   6 C  py              261      8.360489  16 C  py        
   140     -6.562972   9 C  py              215     -6.562972  14 C  py        
    89     -4.983734   6 C  s               161     -4.973983  10 C  s         
   190      4.973983  13 C  s               259      4.983734  16 C  s         
 
 Vector  112  Occ=0.000000D+00  E= 3.095534D-01  Symmetry=ag
              MO Center= -4.3D-12, -2.3D-11,  3.9D-13, r^2= 1.6D+01
   Bfn.  Coefficient  Atom+Function         Bfn.  Coefficient  Atom+Function  
  ----- ------------  ---------------      ----- ------------  ---------------
   140     10.674972   9 C  py              215    -10.674972  14 C  py        
    14      6.999506   1 C  s               337      6.999506  22 C  s         
    63     -6.425525   4 C  s               288     -6.425525  19 C  s         
   163      6.307034  10 C  py              192     -6.307034  13 C  py        
    91     -5.777276   6 C  py              261      5.777276  16 C  py        
 
 Vector  113  Occ=0.000000D+00  E= 3.238254D-01  Symmetry=au
              MO Center=  7.6D-12,  3.7D-11,  4.0D-12, r^2= 1.7D+01
   Bfn.  Coefficient  Atom+Function         Bfn.  Coefficient  Atom+Function  
  ----- ------------  ---------------      ----- ------------  ---------------
    89     19.678210   6 C  s               161     19.634846  10 C  s         
   190    -19.634846  13 C  s               259    -19.678210  16 C  s         
    91    -18.086816   6 C  py              261    -18.086816  16 C  py        
   163    -17.816815  10 C  py              192    -17.816815  13 C  py        
    63    -15.530260   4 C  s               288     15.530260  19 C  s         
 
 Vector  114  Occ=0.000000D+00  E= 3.258459D-01  Symmetry=au
              MO Center= -1.2D-12,  4.6D-12, -4.4D-13, r^2= 1.8D+01
   Bfn.  Coefficient  Atom+Function         Bfn.  Coefficient  Atom+Function  
  ----- ------------  ---------------      ----- ------------  ---------------
    14      6.933658   1 C  s               337     -6.933658  22 C  s         
   112     -6.718245   7 C  s               236      6.718245  15 C  s         
   140      6.564635   9 C  py              215      6.564635  14 C  py        
    37     -6.343577   2 C  s               311      6.343577  20 C  s         
    63      6.070956   4 C  s               288     -6.070956  19 C  s         
 
 Vector  115  Occ=0.000000D+00  E= 3.302444D-01  Symmetry=au
              MO Center= -3.9D-11, -5.0D-11, -2.3D-12, r^2= 2.0D+01
   Bfn.  Coefficient  Atom+Function         Bfn.  Coefficient  Atom+Function  
  ----- ------------  ---------------      ----- ------------  ---------------
    63    -36.070547   4 C  s               288     36.070547  19 C  s         
    14     35.884536   1 C  s               337    -35.884536  22 C  s         
    15     20.177042   1 C  px               64     20.106930   4 C  px        
   289     20.106930  19 C  px              338     20.177042  22 C  px        
    37     15.436602   2 C  s               112    -15.499088   7 C  s         
 
 Vector  116  Occ=0.000000D+00  E= 3.356331D-01  Symmetry=ag
              MO Center=  8.6D-11, -3.3D-11,  1.2D-13, r^2= 1.9D+01
   Bfn.  Coefficient  Atom+Function         Bfn.  Coefficient  Atom+Function  
  ----- ------------  ---------------      ----- ------------  ---------------
    14     29.367202   1 C  s                63     29.318752   4 C  s         
   288     29.318752  19 C  s               337     29.367202  22 C  s         
   112    -18.343960   7 C  s               236    -18.343960  15 C  s         
    37    -17.914495   2 C  s               311    -17.914495  20 C  s         
   114    -14.488096   7 C  py              238     14.488096  15 C  py        
 
 Vector  117  Occ=0.000000D+00  E= 3.525700D-01  Symmetry=ag
              MO Center= -4.6D-12,  4.8D-11,  1.5D-13, r^2= 2.1D+01
   Bfn.  Coefficient  Atom+Function         Bfn.  Coefficient  Atom+Function  
  ----- ------------  ---------------      ----- ------------  ---------------
   140     30.711178   9 C  py              215    -30.711178  14 C  py        
   163     20.310033  10 C  py              192    -20.310033  13 C  py        
    91    -20.102507   6 C  py              261     20.102507  16 C  py        
    37    -12.124653   2 C  s               311    -12.124653  20 C  s         
    14     11.298964   1 C  s                89    -11.284149   6 C  s         
 
 Vector  118  Occ=0.000000D+00  E= 3.620095D-01  Symmetry=au
              MO Center=  1.5D-11, -2.3D-11, -2.8D-12, r^2= 1.6D+01
   Bfn.  Coefficient  Atom+Function         Bfn.  Coefficient  Atom+Function  
  ----- ------------  ---------------      ----- ------------  ---------------
    14      9.826084   1 C  s               337     -9.826084  22 C  s         
    63      9.591561   4 C  s               288     -9.591561  19 C  s         
    89     -9.496373   6 C  s               112     -9.493961   7 C  s         
   236      9.493961  15 C  s               259      9.496373  16 C  s         
    37     -9.442973   2 C  s               161     -9.483508  10 C  s         
 
 Vector  119  Occ=0.000000D+00  E= 3.866327D-01  Symmetry=ag
              MO Center= -4.0D-13,  3.1D-13,  5.3D-13, r^2= 1.4D+01
   Bfn.  Coefficient  Atom+Function         Bfn.  Coefficient  Atom+Function  
  ----- ------------  ---------------      ----- ------------  ---------------
    14     10.690738   1 C  s                63     10.669540   4 C  s         
   288     10.669540  19 C  s               337     10.690738  22 C  s         
   138    -10.027482   9 C  s               213    -10.027482  14 C  s         
   114     -7.008210   7 C  py              238      7.008210  15 C  py        
    39     -6.908649   2 C  py              313      6.908649  20 C  py        
 
 Vector  120  Occ=0.000000D+00  E= 4.406624D-01  Symmetry=au
              MO Center= -9.4D-13,  3.7D-12,  3.5D-13, r^2= 1.8D+01
   Bfn.  Coefficient  Atom+Function         Bfn.  Coefficient  Atom+Function  
  ----- ------------  ---------------      ----- ------------  ---------------
    91      5.094662   6 C  py              261      5.094662  16 C  py        
   163      5.050029  10 C  py              192      5.050029  13 C  py        
   140     -4.747428   9 C  py              215     -4.747428  14 C  py        
    90      2.915122   6 C  px              260      2.915122  16 C  px        
   162     -2.889644  10 C  px              191     -2.889644  13 C  px        
 
 Vector  121  Occ=0.000000D+00  E= 4.459854D-01  Symmetry=au
              MO Center= -3.8D-12, -1.8D-12,  4.3D-13, r^2= 1.0D+01
   Bfn.  Coefficient  Atom+Function         Bfn.  Coefficient  Atom+Function  
  ----- ------------  ---------------      ----- ------------  ---------------
    63     -4.284768   4 C  s               157      4.275707  10 C  s         
   186     -4.275707  13 C  s               288      4.284768  19 C  s         
    14      4.248091   1 C  s               337     -4.248091  22 C  s         
    85     -3.995554   6 C  s               255      3.995554  16 C  s         
   134      3.441376   9 C  s               209     -3.441376  14 C  s         
 
 Vector  122  Occ=0.000000D+00  E= 4.617845D-01  Symmetry=ag
              MO Center=  2.2D-13, -1.9D-11, -5.5D-13, r^2= 1.4D+01
   Bfn.  Coefficient  Atom+Function         Bfn.  Coefficient  Atom+Function  
  ----- ------------  ---------------      ----- ------------  ---------------
    14      6.192472   1 C  s               337      6.192472  22 C  s         
    63     -6.068048   4 C  s               288     -6.068048  19 C  s         
   140      4.885705   9 C  py              215     -4.885705  14 C  py        
    89     -3.987191   6 C  s               259     -3.987191  16 C  s         
   161      3.966101  10 C  s               190      3.966101  13 C  s         
 
 Vector  123  Occ=0.000000D+00  E= 4.677717D-01  Symmetry=au
              MO Center= -1.9D-12,  1.4D-11, -3.2D-12, r^2= 1.2D+01
   Bfn.  Coefficient  Atom+Function         Bfn.  Coefficient  Atom+Function  
  ----- ------------  ---------------      ----- ------------  ---------------
    14     11.052123   1 C  s               337    -11.052123  22 C  s         
    63    -10.570251   4 C  s               288     10.570251  19 C  s         
   134    -10.503696   9 C  s               209     10.503696  14 C  s         
    87     -8.646222   6 C  py              159      8.628399  10 C  py        
   188      8.628399  13 C  py              257     -8.646222  16 C  py        
 
 Vector  124  Occ=0.000000D+00  E= 4.863433D-01  Symmetry=ag
              MO Center=  3.5D-13, -1.7D-12,  2.4D-13, r^2= 1.4D+01
   Bfn.  Coefficient  Atom+Function         Bfn.  Coefficient  Atom+Function  
  ----- ------------  ---------------      ----- ------------  ---------------
   140      8.208692   9 C  py              215     -8.208692  14 C  py        
   163      6.273158  10 C  py              192     -6.273158  13 C  py        
    37     -6.022015   2 C  s               311     -6.022015  20 C  s         
    91     -4.780430   6 C  py              261      4.780430  16 C  py        
    14      4.497530   1 C  s               337      4.497530  22 C  s         
 
 Vector  125  Occ=0.000000D+00  E= 4.877614D-01  Symmetry=ag
              MO Center=  2.5D-12, -2.0D-12,  3.3D-13, r^2= 1.8D+01
   Bfn.  Coefficient  Atom+Function         Bfn.  Coefficient  Atom+Function  
  ----- ------------  ---------------      ----- ------------  ---------------
   112     19.133910   7 C  s               236     19.133910  15 C  s         
    37     18.149354   2 C  s               311     18.149354  20 C  s         
    63    -12.207673   4 C  s               288    -12.207673  19 C  s         
    14    -11.921873   1 C  s               337    -11.921873  22 C  s         
   138     -6.912481   9 C  s               213     -6.912481  14 C  s         
 
 Vector  126  Occ=0.000000D+00  E= 4.978047D-01  Symmetry=au
              MO Center=  3.6D-12,  6.1D-12,  4.2D-12, r^2= 1.4D+01
   Bfn.  Coefficient  Atom+Function         Bfn.  Coefficient  Atom+Function  
  ----- ------------  ---------------      ----- ------------  ---------------
   134      7.341919   9 C  s               209     -7.341919  14 C  s         
    33     -6.048032   2 C  s               108      6.020526   7 C  s         
   232     -6.020526  15 C  s               307      6.048032  20 C  s         
    87      4.637008   6 C  py              257      4.637008  16 C  py        
   159     -4.613050  10 C  py              188     -4.613050  13 C  py        
 
 Vector  127  Occ=0.000000D+00  E= 5.055507D-01  Symmetry=ag
              MO Center= -2.1D-12, -1.3D-11, -6.8D-12, r^2= 1.3D+01
   Bfn.  Coefficient  Atom+Function         Bfn.  Coefficient  Atom+Function  
  ----- ------------  ---------------      ----- ------------  ---------------
    37     41.325485   2 C  s               112     41.395949   7 C  s         
   236     41.395949  15 C  s               311     41.325485  20 C  s         
    14    -24.384238   1 C  s               337    -24.384238  22 C  s         
    63    -23.438695   4 C  s               288    -23.438695  19 C  s         
   138    -20.539105   9 C  s               213    -20.539105  14 C  s         
 

 center of mass
 --------------
 x =   0.00000000 y =  -0.00000000 z =   0.00000000

 moments of inertia (a.u.)
 ------------------
        4012.528063456322           0.000000000010           0.000000000043
           0.000000000010         839.603670217070           0.000000000021
           0.000000000043           0.000000000021        4850.060239808850
 
     Multipole analysis of the density
     ---------------------------------
 
     L   x y z        total         alpha         beta         nuclear
     -   - - -        -----         -----         ----         -------
     0   0 0 0     -0.000000    -47.000000    -47.000000     94.000000
 
     1   1 0 0      0.000000      0.000000      0.000000      0.000000
     1   0 1 0      0.000000      0.000000      0.000000      0.000000
     1   0 0 1     -0.000000     -0.000000     -0.000000      0.000000
 
     2   2 0 0    -52.431466   -273.812392   -273.812392    495.193317
     2   1 1 0      0.018000      0.019805      0.019805     -0.021609
     2   1 0 1      2.334274     -1.364054     -1.364054      5.062381
     2   0 2 0    -51.637609  -1125.888131  -1125.888131   2200.138654
     2   0 1 1      0.261172     -0.223935     -0.223935      0.709041
     2   0 0 2    -66.581464    -33.749111    -33.749111      0.916758
 

 Task  times  cpu:       72.0s     wall:       77.5s
 
 
                                NWChem Input Module
                                -------------------
 
 
 Summary of allocated global arrays
-----------------------------------
  No active global arrays



                         GA Statistics for process    0
                         ------------------------------

       create   destroy   get      put      acc     scatter   gather  read&inc
calls:  375      375     1.84e+04 4243     1.01e+04    0        0     3408     
number of processes/call 1.41e+00 1.55e+00 1.28e+00 0.00e+00 0.00e+00
bytes total:             2.13e+08 3.36e+07 9.44e+07 0.00e+00 0.00e+00 2.73e+04
bytes remote:            1.68e+08 2.47e+07 7.32e+07 0.00e+00 0.00e+00 0.00e+00
Max memory consumed for GA by this process: 3351040 bytes
 
MA_summarize_allocated_blocks: starting scan ...
heap block 'gridpts', handle 99, address 0x16efc7b8:
	type of elements:		double precision
	number of elements:		20876141
	address of client space:	0x16efc840
	index for client space:		9202369
	total number of bytes:		167009272
MA_summarize_allocated_blocks: scan completed: 1 heap block, 0 stack blocks
MA usage statistics:

	allocation statistics:
					      heap	     stack
					      ----	     -----
	current number of blocks	         1	         0
	maximum number of blocks	        28	        55
	current total bytes		 167009272	         0
	maximum total bytes		 167666232	  61579336
	maximum total K-bytes		    167667	     61580
	maximum total M-bytes		       168	        62
 
 
                                     CITATION
                                     --------
                Please cite the following reference when publishing
                           results obtained with NWChem:
 
                 M. Valiev, E.J. Bylaska, N. Govind, K. Kowalski,
              T.P. Straatsma, H.J.J. van Dam, D. Wang, J. Nieplocha,
                        E. Apra, T.L. Windus, W.A. de Jong
                 "NWChem: a comprehensive and scalable open-source
                  solution for large scale molecular simulations"
                      Comput. Phys. Commun. 181, 1477 (2010)
                           doi:10.1016/j.cpc.2010.04.018
 
                                      AUTHORS
                                      -------
          E. Apra, E. J. Bylaska, W. A. de Jong, N. Govind, K. Kowalski,
       T. P. Straatsma, M. Valiev, H. J. J. van Dam, D. Wang, T. L. Windus,
        J. Hammond, J. Autschbach, K. Bhaskaran-Nair, J. Brabec, K. Lopata,
       S. A. Fischer, S. Krishnamoorthy, W. Ma, M. Klemm, O. Villa, Y. Chen,
    V. Anisimov, F. Aquino, S. Hirata, M. T. Hackler, T. Risthaus, M. Malagoli,
       A. Marenich, A. Otero-de-la-Roza, J. Mullin, P. Nichols, R. Peverati,
     J. Pittner, Y. Zhao, P.-D. Fan, A. Fonari, M. Williamson, R. J. Harrison,
       J. R. Rehr, M. Dupuis, D. Silverstein, D. M. A. Smith, J. Nieplocha,
        V. Tipparaju, M. Krishnan, B. E. Van Kuiken, A. Vazquez-Mayagoitia,
        L. Jensen, M. Swart, Q. Wu, T. Van Voorhis, A. A. Auer, M. Nooijen,
      L. D. Crosby, E. Brown, G. Cisneros, G. I. Fann, H. Fruchtl, J. Garza,
        K. Hirao, R. A. Kendall, J. A. Nichols, K. Tsemekhman, K. Wolinski,
     J. Anchell, D. E. Bernholdt, P. Borowski, T. Clark, D. Clerc, H. Dachsel,
   M. J. O. Deegan, K. Dyall, D. Elwood, E. Glendening, M. Gutowski, A. C. Hess,
         J. Jaffe, B. G. Johnson, J. Ju, R. Kobayashi, R. Kutteh, Z. Lin,
   R. Littlefield, X. Long, B. Meng, T. Nakajima, S. Niu, L. Pollack, M. Rosing,
   K. Glaesemann, G. Sandrone, M. Stave, H. Taylor, G. Thomas, J. H. van Lenthe,
                               A. T. Wong, Z. Zhang.

 Total times  cpu:       72.2s     wall:       78.5s
